63
 energy: -93.986479599723 gnorm: 0.000526942823 xtb: 6.7.1 (edcfbbe)
C            1.83241778721491        2.17418152977885       -1.53351586208144
H            1.86627127822754        3.27097257280930       -1.49399535726348
C            3.24824884855420        1.67456333603665       -1.87157752089458
H            3.76370587437675        2.43207710324643       -2.46313937285565
H            3.82306623669597        1.53580997887015       -0.95524851367542
C            3.20477700011372        0.38103986128534       -2.67753335366191
H            4.21445846515102       -0.01309253172360       -2.79658552311867
H            2.62349147951211       -0.36430574389520       -2.13424479604566
C            2.57707170054678        0.63277108116534       -4.05352975970382
H            2.12421300684127       -0.29201349498454       -4.41223655974760
H            3.34911158504594        0.91783045992814       -4.76888462639860
C            1.51900769768902        1.73947824026333       -3.98647594325825
H            0.77666955227066        1.58882561249152       -4.77015523724722
H            1.98044565892845        2.71352885625009       -4.15899266261738
C            0.83389921454530        1.75035046092857       -2.62246100499767
H            0.44814630209983        0.75288536159201       -2.41149042073837
H           -0.01274408198507        2.43919965672671       -2.64673805831457
N            0.04283251022860        2.22395905713732        0.15200565086787
H           -0.84269363993374        1.69783032020722       -0.42732216454245
H            0.00351393547590        3.21326988874241       -0.09504552562711
C            1.38744255871328        1.70186397046396       -0.13007625687463
C            1.31836746257629        0.17631861092787       -0.01089113134282
O            0.39436137779333       -0.46424753382699       -0.47746775329220
N            2.34630000737919       -0.41016058813202        0.61670281497463
C            2.30581502358586       -1.77144625857236        1.12817947629445
C            0.99203184877160       -1.97293956138904        1.88844905838558
O            0.46695032222657       -1.04753561447355        2.47371261986405
N            0.49994977883142       -3.22128539765046        1.86568524193139
H            0.95510769347664       -3.93726636918721        1.32506994921292
C           -0.78072308441500       -3.51440960097922        2.48562302086811
H           -0.99061724699766       -4.57713056930706        2.35159698593806
H           -0.71480332838471       -3.29738768518075        3.55602994764312
C           -1.87582671228849       -2.67725437560736        1.87339497450015
C           -2.73811523840341       -1.94266029296463        2.67695349688916
H           -2.63580522273418       -1.98220816437845        3.75007219347028
C           -3.70777143788570       -1.13784368260739        2.11501971250907
H           -4.36605010116861       -0.56632605046874        2.74934558415434
C           -3.84067801344850       -1.06845084858533        0.72778712232506
C           -2.98570216380876       -1.81524006241131       -0.08149245640522
H           -3.04182873804695       -1.73392636370756       -1.15599455602200
C           -2.00886460969958       -2.60413601102719        0.49066357124191
H           -1.33166698821587       -3.15101520555243       -0.14674070389709
C           -4.84022339025452       -0.17194567092236        0.14007693235996
N           -5.51317431008649       -0.56970546112889       -0.93259868138130
H           -6.18254967585251        0.03252948407868       -1.38614936459017
H           -5.35585547568238       -1.48388364193097       -1.32262049139879
N           -5.05787382914749        0.97591881569795        0.71770475899135
H           -5.71627328350875        1.63199803782070        0.32367685184825
H           -4.30093930727963        1.33664768587733        1.37744418612939
C            3.50655186356211       -1.42736491670140        2.03169222814456
H            3.32490932851463       -1.56556258971565        3.09350688948163
H            4.42789199831428       -1.92386732800246        1.74376208345004
C            3.38625961328122        0.02128701023034        1.53793097088546
H            4.27041561526022        0.42286099989135        1.04058256042119
H            3.03298522747472        0.72280955479932        2.29705818536346
C           -0.55940150772182        1.99140038606829        1.46816972013826
H           -0.15078950730712        1.09239347327281        1.93784063241606
H           -0.47456199547472        2.83377403056833        2.15193944092075
C           -2.05073854703360        1.68120761636531        1.11949906423033
O           -2.91055074445921        1.71397593360208        1.99641059317200
O           -2.20663844593253        1.43574628921973       -0.10227200090950
H            2.08969463563809        2.09330310002510        0.61563631839020
H            2.46500213824649       -2.53624676133809        0.36537182147261
